============================== echo of input deck ==============================
echo
title "Test SCAN-L"

start scanl

geometry
  H     -0.53613834     1.65036000     0.76488131
  N     -0.20560016     1.19352105    -0.09517494
  C      0.50994699     0.02103750     0.20703847
  H      1.50546027    -0.04117360    -0.23494242
  F     -0.24147792    -1.09742630    -0.06675439
end

basis cartesian
  C library 6-31g*
  N library 6-31g*
  F library 6-31g*
  H library 6-31g
end

dft
 xc scanl
 grid xfine
end
task dft energy
================================================================================

 Output coordinates in angstroms (scale by  1.889725989 to convert to a.u.)

  No.       Tag          Charge          X              Y              Z
 ---- ---------------- ---------- -------------- -------------- --------------
    1 H                    1.0000    -0.46151227     1.64900039     0.78859912
    2 N                    7.0000    -0.26850335     1.17628502    -0.10411685
    3 C                    6.0000     0.51633303     0.02722821     0.10023253
    4 H                    1.0000     1.42498181    -0.02627119    -0.50123170
    5 F                    9.0000    -0.24243825    -1.11334373    -0.01777163

         Total DFT energy =     -193.791529113096

                       DFT Final Molecular Orbital Analysis
                       ------------------------------------

 Vector    1  Occ=2.000000D+00  E=-2.440232D+01

 Vector    2  Occ=2.000000D+00  E=-1.407590D+01

 Vector    3  Occ=2.000000D+00  E=-1.013437D+01

 Vector    4  Occ=2.000000D+00  E=-1.132356D+00

 Vector    5  Occ=2.000000D+00  E=-7.804934D-01

 Vector    6  Occ=2.000000D+00  E=-5.939786D-01

 Vector    7  Occ=2.000000D+00  E=-4.753448D-01

 Vector    8  Occ=2.000000D+00  E=-4.403527D-01

 Vector    9  Occ=2.000000D+00  E=-4.024159D-01

 Vector   10  Occ=2.000000D+00  E=-3.324656D-01

 Vector   11  Occ=2.000000D+00  E=-2.902834D-01

 Vector   12  Occ=2.000000D+00  E=-1.766784D-01

 Vector   13  Occ=0.000000D+00  E=-1.481297D-01

 Vector   14  Occ=0.000000D+00  E= 8.828445D-02

 Vector   15  Occ=0.000000D+00  E= 1.120673D-01

 Vector   16  Occ=0.000000D+00  E= 1.231089D-01

 Vector   17  Occ=0.000000D+00  E= 2.435930D-01

 Vector   18  Occ=0.000000D+00  E= 4.808332D-01

 Vector   19  Occ=0.000000D+00  E= 4.887933D-01

 Vector   20  Occ=0.000000D+00  E= 5.432473D-01

 Vector   21  Occ=0.000000D+00  E= 6.347591D-01

 Vector   22  Occ=0.000000D+00  E= 6.761829D-01

 Vector   23  Occ=0.000000D+00  E= 7.252799D-01

 Vector   24  Occ=0.000000D+00  E= 8.053779D-01

 Vector   25  Occ=0.000000D+00  E= 8.353788D-01

 Vector   26  Occ=0.000000D+00  E= 8.943886D-01

 Vector   27  Occ=0.000000D+00  E= 1.054116D+00

 Vector   28  Occ=0.000000D+00  E= 1.077382D+00

 Vector   29  Occ=0.000000D+00  E= 1.161928D+00

 Vector   30  Occ=0.000000D+00  E= 1.209097D+00

 Vector   31  Occ=0.000000D+00  E= 1.365652D+00

 Vector   32  Occ=0.000000D+00  E= 1.374498D+00

 Vector   33  Occ=0.000000D+00  E= 1.584553D+00

 Vector   34  Occ=0.000000D+00  E= 1.626407D+00

 Vector   35  Occ=0.000000D+00  E= 1.724571D+00

 Vector   36  Occ=0.000000D+00  E= 1.746590D+00

 Vector   37  Occ=0.000000D+00  E= 1.819852D+00

 Vector   38  Occ=0.000000D+00  E= 1.874138D+00

 Vector   39  Occ=0.000000D+00  E= 1.945866D+00

 Vector   40  Occ=0.000000D+00  E= 2.005534D+00

 Vector   41  Occ=0.000000D+00  E= 2.135468D+00

 Vector   42  Occ=0.000000D+00  E= 2.293451D+00

 Vector   43  Occ=0.000000D+00  E= 2.321881D+00

 Vector   44  Occ=0.000000D+00  E= 2.445194D+00

 Vector   45  Occ=0.000000D+00  E= 2.636897D+00

 Vector   46  Occ=0.000000D+00  E= 2.885830D+00

 Vector   47  Occ=0.000000D+00  E= 3.583458D+00

 Vector   48  Occ=0.000000D+00  E= 3.992651D+00

 Vector   49  Occ=0.000000D+00  E= 4.114737D+00

     Multipole analysis of the density
     ---------------------------------

     L   x y z        total         alpha         beta         nuclear
     -   - - -        -----         -----         ----         -------
     0   0 0 0     -0.000000    -12.000000    -12.000000     24.000000

     1   1 0 0      0.626502      0.313251      0.313251      0.000000
     1   0 1 0     -0.088773     -0.044386     -0.044386      0.000000
     1   0 0 1      0.421609      0.210804      0.210804     -0.000000

     2   2 0 0    -11.680734    -14.548069    -14.548069     17.415404
     2   1 1 0     -0.625233      0.572504      0.572504     -1.770242
     2   1 0 1     -0.750791      0.576663      0.576663     -1.904117
     2   0 2 0    -13.289025    -48.721782    -48.721782     84.154538
     2   0 1 1      1.642760     -0.340499     -0.340499      2.323759

 Total times  cpu:       11.3s     wall:       11.4s
